# vtk DataFile Version 2.0
OceanHourly
ASCII
DATASET STRUCTURED_POINTS
DIMENSIONS 300 30 10
ORIGIN 0. 0. 0.
SPACING 1. 1. 1.
POINT_DATA 90000
VECTORS ocean double
0.263982 -0.09673 0.2811462061348152
0.238897 -0.12974 0.27185335055687654
0.215389 -0.14349 0.25880842610123805
0.192929 -0.1414 0.23919774045964565
0.176805 -0.13061 0.2198157867965811
0.161118 -0.1282 0.20589863992751387
0.143655 -0.14403 0.20342418716809463
0.129313 -0.17561 0.21808421325029467
0.125125 -0.20979 0.24427056663667032
0.119138 -0.2175 0.2479921632713421
0.111131 -0.20272 0.23118282280697242
0.097299 -0.19331 0.2164159224756811
0.085364 -0.16962 0.18988932802029712
0.077073 -0.11936 0.1420811631744335
0.066617 -0.079 0.10333839890863415
0.070526 -0.0768 0.10426963448674786
0.101324 -0.07409 0.12552243256087733
0.136047 -0.05319 0.14607519402348915
0.155582 -0.00593 0.15569496980956063
0.166474 0.040538 0.1713386182972187
0.170794 0.074991 0.18653214338821072
0.166586 0.091916 0.19026152120699552
0.160713 0.102884 0.19082396554154304
0.154337 0.099141 0.18343622175023122
0.14626 0.088565 0.17098463914925224
0.13963 0.080009 0.1609284840573601
0.13693 0.08613 0.1617658857732371
0.138112 0.103538 0.17261240392277724
0.146893 0.143358 0.20525367137520342
0.166928 0.178343 0.24427685693286624
0.196718 0.180043 0.2666710583715451
0.225868 0.136632 0.2639785158833954
0.248953 0.076453 0.26042783533639413
0.257746 0.030997 0.2596031866618744
0.256561 0.020699 0.2573946295515895
0.256179 0.027594 0.2576608407907573
0.270806 0.03851 0.27353045486014893
0.296713 0.029145 0.2981409656420935
0.315398 0.012464 0.3156441821101729
0.313785 -0.00074 0.31378587257077073
0.297212 0.003754 0.29723570690615214
0.28585 0.019259 0.28649804812773155
0.29039 0.039212 0.29302548190217176
0.298141 0.034825 0.3001680137956075
0.278698 0.003378 0.2787184710204905
0.230091 -0.02843 0.23184074961274603
0.176378 -0.0298 0.17887772047966174
0.133139 -0.01753 0.1342881015615308
0.101265 -0.0144 0.10228372414514442
0.077737 -0.0183 0.07986195069618574
0.064729 -0.0208 0.06798884791640464
0.062576 -0.01586 0.06455459221465194
0.069379 -0.01592 0.07118210478062587
0.078858 -0.01633 0.08053106893615655
0.09147 -0.01362 0.09247845857279412
0.101237 -0.00338 0.101293408319594
0.112512 -0.00558 0.1126502842606267
0.114468 -0.01553 0.1155166824489
0.097139 -0.02125 0.09943614946788719
0.078412 0.006662 0.07869449782545156
0.063618 0.039844 0.07506526666841329
0.035834 0.059772 0.06969051255371853
0.005514 0.091673 0.09183867989578248
-0.00105 0.116912 0.11691671498977381
-0.00022 0.121263 0.12126319956606785
0.012424 0.118429 0.11907889744618902
0.037685 0.112329 0.11848191197815808
0.076164 0.09832 0.12436951915963976
0.129696 0.082923 0.15393919690903937
0.17686 0.073888 0.19167393183216125
0.217714 0.075878 0.23055770791712862
0.249072 0.080411 0.2617303767333857
0.259683 0.072845 0.26970660821344367
0.260155 0.044765 0.263978274200738
0.27941 -0.00609 0.27947636071768217
0.334522 -0.04909 0.3381047124545885
0.39996 -0.07165 0.4063271146502532
0.438857 -0.05682 0.4425200321443087
0.438005 -0.02948 0.43899595718525697
0.415277 0.037225 0.4169420671436261
0.379243 0.107957 0.3943094811160391
0.321805 0.205868 0.38202106152540855
0.302851 0.396502 0.4989314223467991
0.28916 0.453692 0.5380055171315625
0.223515 0.32789 0.39682591564185926
0.135742 0.192086 0.23520825232121428
0.078864 0.135898 0.15712350842569675
0.06009 0.13195 0.1449883119427218
0.067225 0.155233 0.1691640769016874
0.096977 0.17202 0.19747257766333026
0.145075 0.153217 0.21100285475319996
0.18286 0.108626 0.21269082602688813
0.197773 0.059701 0.20658743652507042
0.193823 0.021623 0.19502540721147077
0.174575 -0.00299 0.17460060344970174
0.145711 -0.03325 0.14945654224890928
0.114442 -0.06947 0.13387700423896556
0.094051 -0.09506 0.13372357384171274
0.077792 -0.11038 0.13503828962186984
0.065311 -0.11135 0.1290904691330851
0.058073 -0.10522 0.12018203579986486
0.058916 -0.0914 0.10874306900212077
0.052692 -0.07941 0.09530160000755496
0.045582 -0.07653 0.08907614508946826
0.041597 -0.08174 0.09171552763300225
0.044147 -0.0982 0.10766706835889978
0.044234 -0.13261 0.13979291418380263
0.033187 -0.16663 0.16990271883934052
-1.36078 -0.18482 1.373273694789207
-0.05287 -0.15215 0.1610740804723094
-0.10559 -0.08967 0.13852782031057878
-0.14388 -0.05217 0.15304627829516143
-0.1516 -0.04382 0.15780605945273457
-0.14987 -0.05665 0.16021934777048621
-0.14489 -0.06176 0.15750368154427374
-0.13941 -0.03874 0.14469255578639836
-0.13765 0.002567 0.13767393358584623
-0.1478 0.025941 0.15005923990544534
-0.15794 0.011639 0.15836827308839355
-0.1684 -0.04291 0.17378097738245116
-0.15579 -0.09183 0.18084046283948735
-0.11411 -0.07632 0.13728013148303728
-0.05426 0.015114 0.05632566551759509
0.016444 0.138327 0.13930098371870892
0.082751 0.202531 0.21878421780832363
0.089899 0.156152 0.18018123460837981
0.054698 0.077017 0.0944642233493718
-0.00137 0.019902 0.019949097824212503
-0.0355 -0.00901 0.036625538903885084
-0.04706 -0.04384 0.06431632141222009
-0.05189 -0.08425 0.09894763564633569
-0.0572 -0.09987 0.11509064644878836
-0.0485 -0.08091 0.09433280500440978
-0.03199 -0.03628 0.048369396316265925
-0.02202 0.013399 0.025776221619934914
-0.02892 0.064624 0.07079991367226375
-0.02913 0.124675 0.12803285720860874
-0.01834 0.163721 0.164745019472517
-0.00591 0.151308 0.1514233765440462
0.011234 0.092265 0.09294639842941736
0.037489 0.026431 0.0458696291896937
0.071175 -0.00531 0.071372801016914
0.089454 -0.01238 0.09030660283722337
0.069238 -0.03637 0.07820919091769202
0.064273 -0.06394 0.0906605875173992
0.113362 -0.02301 0.1156736925320533
0.177538 0.008151 0.17772501299760818
0.228257 -0.02813 0.22998381453702346
0.265286 -0.08594 0.27885900630246824
0.306663 -0.08816 0.3190836585740486
0.322886 -0.00985 0.3230362077167202
0.307149 0.124904 0.33157430150269485
0.266574 0.185221 0.3246051698864329
0.181179 0.128845 0.22232153306866162
0.089054 0.051526 0.10288607093285271
0.034169 0.061317 0.07019469388778614
0.037998 0.123491 0.12920477965230234
0.08257 0.155416 0.17598845972392624
0.125323 0.157835 0.2015384369146491
0.140645 0.168534 0.2195101937974635
0.136391 0.169611 0.217647412578234
0.105704 0.132517 0.16951132972459393
0.083509 0.051186 0.097947739519603
0.06381 -0.05216 0.08241590683842531
0.05976 -0.13094 0.1439324188638543
0.067179 -0.15534 0.16924400621883187
0.076629 -0.13982 0.1594416383539758
0.079873 -0.08179 0.11432104018508579
0.091502 -0.01614 0.0929145607749399
0.106348 0.019808 0.10817695673293827
0.099061 0.039994 0.10682977935482221
0.084109 0.055532 0.1007875334800887
0.074146 0.06036 0.09560836216565997
0.081542 0.06717 0.10564519233737046
0.101798 0.075076 0.12648809659410643
0.128473 0.077097 0.14983076832880488
0.154064 0.064917 0.16718233454824108
0.17172 0.04805 0.17831590198296957
0.179438 0.031811 0.18223593379188419
0.183667 0.020636 0.1848226484633309
0.191031 0.006584 0.19114442711468205
0.202665 -0.01618 0.20330984881456188
0.217306 -0.04247 0.2214172498609808
0.226322 -0.07093 0.23717654307287642
0.23074 -0.09102 0.24804352037495356
0.234971 -0.09573 0.2537234788918834
0.235162 -0.08415 0.2497646667244989
0.23453 -0.06972 0.24467365877838176
0.230341 -0.06808 0.2401913043409357
0.234887 -0.10748 0.25830960719454477
0.244825 -0.19108 0.3105653667507052
0.241918 -0.27275 0.3645776751585319
0.205557 -0.30011 0.36375773854173876
0.157299 -0.27146 0.31374114649022367
0.109063 -0.21795 0.243714875354378
0.073411 -0.15885 0.17499284962820624
0.049653 -0.10484 0.1160036465332017
0.03827 -0.06053 0.07161336327809217
0.04151 -0.03487 0.05421251700483939
0.064244 -0.01539 0.06606166540437805
0.100055 -0.0031 0.10010301206756968
0.140913 0.004321 0.14097923467660053
0.182803 0.010768 0.18311986957454943
0.223666 0.023708 0.2249189827915821
0.265213 0.046429 0.26924633221271554
0.311821 0.076247 0.32100769624730185
0.353588 0.112547 0.3710677848493453
0.38703 0.146791 0.4139321424835235
0.411166 0.169322 0.44466551388656167
0.432275 0.167363 0.46354293155434917
0.44199 0.131523 0.46114364316230144
0.439001 0.067352 0.44413755741324107
0.419595 -0.00634 0.41964289535866084
0.390488 -0.067 0.39619424294656275
0.36202 -0.10353 0.37653278914325644
0.344179 -0.11115 0.36168149875408334
0.324089 -0.09673 0.33821645853062804
0.3 -0.07265 0.3086713827033533
0.283888 -0.04818 0.2879474065589061
0.288669 -0.00791 0.2887773530957717
0.292895 0.037626 0.2953018741914789
0.296994 0.08873 0.3099652382703583
0.292938 0.120206 0.3166419970250314
0.279801 0.155604 0.3201580928494546
0.273484 0.196141 0.33654834739900297
0.23611 0.17725 0.2952380304093631
0.151738 0.076571 0.16996334512182326
0.08987 -0.06512 0.1109830225755273
0.055245 -0.1449 0.15507424036570355
0.036902 -0.13997 0.14475274955592382
0.020652 -0.11203 0.11391762815297728
0.007598 -0.09451 0.0948149234245327
0.012385 -0.06231 0.06352892510502597
0.033717 -0.01999 0.039197400283692285
0.050523 0.00788 0.05113382372754848
0.072377 0.027944 0.07758413023937305
0.093062 0.039002 0.10090436981617792
0.113675 0.033449 0.11849405565681344
0.13066 0.012504 0.1312569450200636
0.152284 -0.03726 0.1567760321477744
0.169958 -0.08101 0.18827730044803595
0.18092 -0.07836 0.1971606857362796
0.209964 -0.09225 0.2293358755101347
0.261825 -0.12743 0.2911884879678453
0.310521 -0.13551 0.33880119766759975
0.344688 -0.12534 0.36676959108410284
0.369928 -0.12181 0.3894668166660672
0.391834 -0.11871 0.4094214792313662
0.40625 -0.08547 0.415143569623811
0.399647 -0.03603 0.4012678475893627
0.381225 -0.00618 0.3812750883876364
0.340011 0.004535 0.3400412421251281
0.286706 0.000545 0.2867065179953187
0.232392 0.008452 0.23254564706310887
0.166255 0.022208 0.16773169136749322
0.10806 0.048574 0.11847530154424592
0.086002 0.08025 0.11762825555112173
0.098039 0.061914 0.11595252872188687
0.108705 0.015362 0.10978509948531266
0.133384 0.022434 0.1352574427231271
0.138183 0.069329 0.15459964983789581
0.156235 0.128894 0.2025414487481513
0.179356 0.147626 0.2322972462428257
0.207674 0.109913 0.23496671646214065
0.209709 0.053254 0.216365092371667
0.181633 -0.00794 0.18180646382623472
0.136243 -0.06688 0.15177315127847876
0.08384 -0.11331 0.14095496337483118
0.037823 -0.14323 0.14813984011399497
-0.00683 -0.1562 0.15634925295632213
-0.04935 -0.14277 0.15105858267572883
-0.0542 -0.11059 0.12315757426971351
-0.01727 -0.07065 0.07273015468153496
0.04461 -0.0323 0.05507578506022406
0.110037 0.010914 0.11057692691063538
0.167594 0.03512 0.17123423499989715
0.227712 0.067519 0.23751120037800322
0.277767 0.109015 0.29839366031134107
0.324531 0.134806 0.35141574750856003
0.322216 0.153007 0.3566991627478259
0.304432 0.147102 0.338109214645209
0.29417 0.132388 0.3225873082500302
0.295568 0.093502 0.31000494613473506
0.311302 0.064094 0.31783167878611474
0.337876 0.042988 0.34059970569570375
0.37841 0.024595 0.37920844152655675
0.404334 0.014757 0.4046032038985851
0.431783 0.016992 0.4321172145992334
0.457583 0.016966 0.4578974197841696
0.494426 0.007661 0.49448534902158625
0.532606 0.027215 0.5333008601727547
0.565342 0.046248 0.5672305126383805
0.598555 0.069858 0.6026178127047025
0.622538 0.093769 0.6295603122854871
0.631165 0.115102 0.6415744131657684
0.656901 0.127374 0.6691360546832011
0.664866 0.108307 0.6736298718176028
0.639407 0.109594 0.648731189696472
0.599631 0.109588 0.609562848199429
0.560798 0.047136 0.56277544304989
0.261697 -0.04872 0.26619346011688566
0.247256 -0.08666 0.2620028342136779
0.227658 -0.10849 0.25218692484742344
0.204044 -0.11215 0.23283379573421037
0.187646 -0.10575 0.21539285925025464
0.171663 -0.11185 0.20488681770431208
0.154008 -0.1438 0.21070572859796668
0.141549 -0.18175 0.23036749315170316
0.130694 -0.20526 0.24333637055730079
0.116832 -0.20213 0.23346574293458988
0.106281 -0.18937 0.21715581470685974
0.094647 -0.183 0.20602682982805906
0.078776 -0.15686 0.17552982019018876
0.069448 -0.10191 0.12332344790833574
0.05687 -0.07828 0.0967571976650833
0.058702 -0.10294 0.1185013434691776
0.078624 -0.1087 0.13415447579562897
0.09542 -0.08148 0.12547496483362727
0.099792 -0.03076 0.10442519266920221
0.107935 0.024539 0.1106893253480208
0.11362 0.07091 0.1339318203415454
0.114624 0.098544 0.1511607796751525
0.110691 0.112091 0.15753377340113453
0.109419 0.104877 0.1515641866998929
0.108694 0.088181 0.13996526139367582
0.108818 0.078254 0.13403374813829538
0.109743 0.080242 0.13594963998848983
0.11731 0.090391 0.1480951348998339
0.13568 0.116068 0.1785520737040038
0.163383 0.139767 0.21500888116075578
0.195021 0.134918 0.23714142861381265
0.225196 0.094777 0.24432748135443136
0.244845 0.04852 0.24960621872261116
0.249427 0.023463 0.250528123566996
0.245436 0.017817 0.24608184732929814
0.247073 0.01903 0.24780477846280527
0.264932 0.022624 0.26589623916106825
0.292255 0.016499 0.2927203478168199
0.311375 0.009194 0.3115107064949775
0.316982 -0.00066 0.31698268710451677
0.309858 -0.00395 0.3098831758324418
0.29611 0.002134 0.2961176895357655
0.289275 0.027413 0.29057098649727575
0.298598 0.046718 0.30223060256698026
0.303243 0.033945 0.3051369857523011
0.284492 0.001996 0.284499001896316
0.243915 -0.01244 0.24423202252161774
0.194897 -0.019 0.19582094016983984
0.149025 -0.02526 0.15115064745147472
0.111562 -0.03879 0.11811326743427258
0.087817 -0.04747 0.09982598053112227
0.076527 -0.05888 0.0965569061693673
0.078745 -0.06615 0.10284258614504012
0.093378 -0.06608 0.11439413133548416
0.11188 -0.04972 0.12243044065917592
0.126656 -0.02997 0.1301535371628447
0.138372 -0.01607 0.13930202900173422
0.143512 -0.00794 0.14373147791628665
0.13729 0.003583 0.137336746681287
0.121253 0.034511 0.12606862865122315
0.103947 0.075688 0.12858324989282235
0.078104 0.093085 0.12151153048579381
0.035483 0.100774 0.1068383936841059
0.013816 0.115346 0.11617048494346574
0.015965 0.120017 0.12107419838264467
0.031443 0.110659 0.115039456405183
0.056788 0.087733 0.10450816347539556
0.078495 0.050553 0.09336525496136129
0.097106 0.023008 0.09979450535976417
0.121902 0.022675 0.123992956368497
0.131821 0.033454 0.13599980204765005
0.13113 0.062662 0.14533273252781012
0.120176 0.063815 0.13606845777401905
0.138994 0.016015 0.1399135885502191
0.213196 -0.05752 0.22081912239658955
0.297042 -0.11292 0.31778117654134264
0.353342 -0.12345 0.37428661673108216
0.385173 -0.0791 0.3932112027002791
0.381108 -0.0249 0.3819205645994989
0.347216 0.058059 0.3520366431736901
0.305902 0.140191 0.3364959882153129
0.261668 0.235845 0.35226837247899506
0.232223 0.432847 0.4912067254608797
0.230955 0.52283 0.5715692617041264
0.193665 0.389486 0.4349775585257244
0.137645 0.227403 0.26581623433116347
0.082373 0.1524 0.1732370374054001
0.072183 0.130628 0.14924496598880646
0.099198 0.126292 0.16059237985657973
0.144276 0.12608 0.19160305471468872
0.188815 0.112474 0.21977603350001565
0.218681 0.073501 0.23070278880412348
0.221604 0.026398 0.22317075798589742
0.204766 -0.00351 0.2047960811539127
0.178442 -0.01591 0.1791498687244844
0.148307 -0.03632 0.1526895826472782
0.117921 -0.07129 0.13779559623224538
0.100097 -0.10041 0.14178003212370915
0.084232 -0.11721 0.14433715365074926
0.066802 -0.12127 0.13845186926871014
0.050821 -0.10906 0.12031981400002247
0.04844 -0.0895 0.10176779254754423
0.05342 -0.07424 0.09146187183739463
0.053293 -0.07079 0.08860794517987651
0.047544 -0.07509 0.08887598120977344
0.048869 -0.09353 0.10552743747954842
0.041879 -0.12942 0.13602715552785774
0.021897 -0.16181 0.16328488818319964
-0.01915 -0.16938 0.1704591062395905
-0.07651 -0.12717 0.14841155278481524
-0.11918 -0.08116 0.14419021464718054
-0.13674 -0.06911 0.1532123353389015
-0.13644 -0.07963 0.15797724677940175
-0.1371 -0.09612 0.1674379419367068
-0.14419 -0.09639 0.1734410222525225
-0.16262 -0.05874 0.17290359163418206
-0.18072 0.001221 0.1807241246790256
-0.19349 0.032438 0.1961902238746875
-0.19286 -0.00347 0.1928912141596916
-0.18974 -0.09044 0.21019196273882595
-0.18652 -0.1524 0.24086400810415823
-0.16745 -0.13403 0.2144843663300428
-0.12507 -0.04718 0.13367294902110896
-0.05841 0.078584 0.09791411111785676
0.032731 0.175575 0.17859982918804823
0.119241 0.205725 0.2377839180979235
0.158651 0.158522 0.22427519765903672
0.15056 0.084608 0.17270445062012735
0.119487 0.019285 0.12103327804368516
0.087618 -0.03874 0.09580032110593367
0.074737 -0.09131 0.11799633582870275
0.068319 -0.11844 0.13673155949158192
0.066118 -0.1048 0.1239138003775205
0.069569 -0.05376 0.08792032393593646
0.078301 0.016658 0.08005332950602366
0.087298 0.079717 0.1182190377773394
0.091637 0.126165 0.1559325078166833
0.10648 0.157942 0.1904827177567561
0.136188 0.149615 0.20231613768802525
0.166539 0.092677 0.19058925691129602
0.206734 0.022741 0.20798100835653238
0.252231 0.009977 0.25242824305136696
0.263501 0.034864 0.26579743320242954
0.193805 -0.01019 0.19407270319393194
0.113736 -0.08386 0.14130950886617646
0.094718 -0.06362 0.11410084979525788
0.108143 -0.03002 0.11223238770069895
0.112824 -0.0675 0.13147435101950494
0.124344 -0.12665 0.17748704976983534
0.156976 -0.12006 0.19762557571326642
0.192234 -0.00866 0.19242896444142707
0.201105 0.153409 0.2529378230039944
0.199874 0.254075 0.3232703535757648
0.178849 0.225337 0.2876868581809048
0.128037 0.136853 0.1874092233002421
0.07816 0.089931 0.11914936156354343
0.051233 0.089443 0.10307701265558679
0.06682 0.110724 0.12932407577864224
0.09751 0.13022 0.16268204725783358
0.123336 0.159188 0.20137673212166296
0.13983 0.168445 0.21892041230776085
0.134839 0.140777 0.19493516781227546
0.123755 0.059294 0.13722637669559012
0.121056 -0.04352 0.12864115024361372
0.12998 -0.12315 0.17905508342406815
0.13485 -0.14564 0.19848307761620382
0.126944 -0.12994 0.18165677178679576
0.11439 -0.09226 0.1469591089385071
0.110239 -0.01082 0.11076872086017785
0.121428 0.047908 0.13053710448757472
0.119186 0.070671 0.13856295622207257
0.103973 0.076803 0.12926362805522673
0.093905 0.064524 0.11393636645514021
0.088923 0.052492 0.10326039895816788
0.095695 0.049703 0.10783283931159376
0.11253 0.053057 0.12441079595035151
0.129424 0.051989 0.13947554587453675
0.138138 0.037286 0.14308162998791984
0.142475 0.018401 0.1436583531368782
0.147508 0.000993 0.14751134231983654
0.155673 -0.01707 0.15660609128957917
0.16383 -0.04349 0.16950412679342058
0.172599 -0.07432 0.1879198690958463
0.176411 -0.0998 0.20268419011111846
0.172351 -0.10871 0.20377127202086168
0.166689 -0.1004 0.1945902945190227
0.160596 -0.08405 0.1812608002740802
0.160411 -0.0694 0.17478000149044512
0.165874 -0.07787 0.18324279188006276
0.176512 -0.12715 0.21753990126870978
0.180239 -0.20005 0.26926956683034203
0.155279 -0.24804 0.29263528399870037
0.113698 -0.25366 0.2779759536434761
0.078787 -0.22838 0.241588111812233
0.047988 -0.1839 0.19005803888286338
0.011875 -0.13633 0.13684620756528112
-0.01938 -0.09 0.0920629371680048
-0.04341 -0.06145 0.07523649779196265
-0.04931 -0.05831 0.07636446948679733
-0.04098 -0.05487 0.06848413903963457
-0.01592 -0.04445 0.047214922429249004
0.016644 -0.0319 0.03598100521108325
0.049061 -0.01986 0.052928265803821685
0.080208 -0.00666 0.08048402862680272
0.116151 0.013897 0.11697940592258109
0.157755 0.039487 0.1626218410730859
0.19885 0.079352 0.21409825408909808
0.239155 0.12294 0.26890399332289583
0.274056 0.15008 0.31245911338285526
0.309772 0.160289 0.3487854003610243
0.333909 0.136067 0.3605682303947479
0.34721 0.091506 0.359065637643036
0.343207 0.04066 0.345607118631836
0.322371 -0.01197 0.32259315327669313
0.293245 -0.05196 0.29781281306384383
0.271317 -0.07072 0.28038229774541756
0.251307 -0.06464 0.2594870668241483
0.236474 -0.06016 0.24400651277373722
0.239258 -0.05705 0.24596563390847917
0.268964 -0.02606 0.270223531351361
0.292091 0.017223 0.2925983322064567
0.303842 0.081908 0.3146885467061043
0.294255 0.128036 0.3209037586582619
0.27061 0.16293 0.3158733242931413
0.255434 0.231023 0.3444098646743441
0.235914 0.248577 0.34270386680777326
0.165958 0.146527 0.22138703551247077
0.086839 -0.01523 0.08816441924608816
0.04294 -0.10816 0.11637194335405765
0.01114 -0.10371 0.10430658512289624
-0.01224 -0.0901 0.09092759537126228
-0.0255 -0.0925 0.09595050807577832
-0.03323 -0.07491 0.08194962477034291
-0.0178 -0.04478 0.0481880524611651
-0.00053 -0.02646 0.026465307479793244
0.013052 -0.01246 0.01804456438931126
0.040702 -0.00702 0.04130294425340644
0.057808 -0.02056 0.06135534584695941
0.067008 -0.04081 0.07845717407605247
0.070444 -0.07141 0.10030825108633885
0.08562 -0.08628 0.12155255159806395
0.115864 -0.10357 0.15540660023306604
0.171183 -0.14645 0.22528031868984916
0.233511 -0.17864 0.2940061848346051
0.259349 -0.18003 0.3157098425785931
0.265673 -0.17051 0.31568307371317833
0.259079 -0.16839 0.30899372217085574
0.250867 -0.14597 0.29024385021736465
0.226966 -0.08812 0.2434721740897715
0.191335 -0.02223 0.19262205254072026
0.152781 0.021159 0.15423922082920413
0.114813 0.037862 0.12089481383831152
0.069366 0.050646 0.08588748029835315
0.028884 0.078421 0.08357115948100756
0.005157 0.089755 0.08990302928155423
0.019958 0.078146 0.0806543184212724
0.048174 0.068241 0.08353184037838506
0.102512 0.040956 0.11039068837542412
0.131361 0.007177 0.13155691410944542
0.145358 0.018664 0.14655133250844224
0.144728 0.055777 0.1551040544698945
0.162369 0.113137 0.19789813776284002
0.187208 0.145698 0.23722298048039106
0.215477 0.141783 0.2579394437033623
0.229974 0.10659 0.25347478923159206
0.227085 0.061299 0.23521301967790814
0.180489 0.000344 0.1804893278202343
0.119191 -0.04945 0.12904184197770893
0.056868 -0.0852 0.10243539146213089
-0.00393 -0.11171 0.11177910806586354
-0.06871 -0.12458 0.14227171363275273
-0.09112 -0.12831 0.15737315685973896
-0.06597 -0.1124 0.130329585666494
-0.01619 -0.07923 0.08086723069327896
0.052822 -0.04441 0.06901022956055138
0.120462 -0.01094 0.12095774900352602
0.176742 0.01932 0.17779481703356823
0.234711 0.074478 0.24624424055193656
0.303637 0.136055 0.332725699028494
0.336182 0.172228 0.3777311492424208
0.330797 0.161772 0.36823475554732743
0.318333 0.13226 0.3447152542157077
0.31647 0.07798 0.32593579321700766
0.322879 0.032694 0.324530039098078
0.330464 -0.00213 0.33047086436779866
0.33986 -0.01792 0.34033211132656876
0.336924 -0.01811 0.33741036420951864
0.341986 -0.01626 0.34237232919148125
0.37537 -0.02397 0.37613454746938624
0.433183 -0.03698 0.4347585903567634
0.491616 -0.02631 0.49231951774838256
0.542143 -0.00602 0.542176422254786
0.582108 0.024355 0.5826172754810828
0.607861 0.061582 0.6109724527709903
0.62599 0.096523 0.6333878508694337
0.64095 0.121371 0.6523402656137363
0.644073 0.113863 0.6540602511221729
0.635039 0.140495 0.650394785146683
0.604415 0.114885 0.6152365849411103
0.573324 0.0168 0.5735700907264952
0.237076 -0.01678 0.2376690938595088
0.234256 -0.04791 0.2391050849229267
0.219438 -0.07101 0.23064140119241386
0.2015 -0.08033 0.21692201110076406
0.188955 -0.07933 0.20493228375490283
0.175301 -0.09613 0.199928530982949
0.159236 -0.14261 0.21376088462578927
0.146903 -0.17766 0.23052888541135144
0.131475 -0.1867 0.22834746686792917
0.117452 -0.18342 0.21780236156662763
0.109898 -0.1744 0.20613813427893443
0.104291 -0.16885 0.19846141988054
0.089285 -0.14022 0.16623314839405529
0.075954 -0.07917 0.10971280242524115
0.055564 -0.0726 0.0914227438660643
0.043997 -0.11236 0.12066692011069148
0.045801 -0.11695 0.12559870262466885
0.043446 -0.09063 0.1005054815221538
0.037255 -0.05113 0.06326303758910096
0.039669 0.007477 0.04036750041803431
0.039282 0.05903 0.0709056868241187
0.040634 0.095991 0.10423720083060559
0.04512 0.103483 0.11289174322774896
0.055233 0.094033 0.10905452479379295
0.064117 0.079441 0.10208752210725854
0.069459 0.077708 0.10422612889770012
0.075255 0.074815 0.10611597075841131
0.08669 0.077265 0.11612508912806052
0.108771 0.08899 0.14053594038892686
0.136732 0.104174 0.17189491586431518
0.169457 0.093637 0.19360672152071579
0.201287 0.066357 0.21194269937414686
0.217412 0.035125 0.22023111353530408
0.21843 0.02435 0.21978304620693564
0.219056 0.014833 0.21955762119543926
0.230676 0.009474 0.23087046942387413
0.252001 0.006421 0.2520827904518672
0.275708 0.007304 0.2758047310689213
0.292061 0.002066 0.2920683072108304
0.302071 -0.00165 0.3020755063572682
0.30511 -0.00335 0.30512839035396233
0.300136 0.007009 0.30021782854620743
0.290331 0.020386 0.2910458358351825
0.28743 0.04366 0.29072702058804234
0.297372 0.053302 0.3021112536599721
0.304123 0.042089 0.30702163286973766
0.29617 0.018462 0.2967448640566505
0.272447 -0.00342 0.2724684646137971
0.231462 -0.02844 0.23320268232591151
0.183864 -0.05338 0.1914559868377064
0.145848 -0.07633 0.16461442222357067
0.128534 -0.10104 0.16349333550943293
0.127455 -0.11396 0.17097268385622308
0.1338 -0.10753 0.17165413161354434
0.141522 -0.08192 0.16352175049209816
0.153223 -0.05649 0.1633046472976198
0.164521 -0.03065 0.16735167146162597
0.171086 -0.00268 0.17110698932539253
0.169164 0.029618 0.17173725518943175
0.158753 0.06728 0.17242132527329676
0.151273 0.116204 0.190753480033786
0.137471 0.136419 0.19367090489281039
0.087046 0.121764 0.14967791357444826
0.034757 0.109534 0.11491625735725995
0.025876 0.112625 0.11555932675902884
0.031222 0.10428 0.10885371690484437
0.036051 0.077241 0.08523993595727299
0.047142 0.037048 0.059957672303050595
0.071095 0.017416 0.07319710432114102
0.08161 0.019747 0.08396508863212139
0.060296 0.045187 0.07534900520245771
0.02773 0.071866 0.07703035022638804
0.040728 0.047581 0.06263163374046696
0.117751 -0.03203 0.12202958207336448
0.204717 -0.12872 0.24182201820553895
0.269704 -0.17322 0.32053925815101025
0.294269 -0.15772 0.33387099718454133
0.293166 -0.09475 0.30809716982796187
0.273427 -0.01356 0.2737630324368138
0.24568 0.082703 0.25922663560868897
0.21184 0.169189 0.27111086905729176
0.180445 0.26454 0.32022150087868867
0.155213 0.475657 0.5003405410497934
0.155797 0.571023 0.5918952371306935
0.15006 0.440039 0.4649218484014276
0.126012 0.26864 0.2967262606241652
0.09828 0.166781 0.19358424615913353
0.117713 0.121889 0.16944992974327253
0.173569 0.096275 0.19848192206344636
0.24189 0.090771 0.25836049725335336
0.288423 0.085836 0.30092465140795627
0.299426 0.055769 0.30457529584160303
0.278153 0.017659 0.27871299160606056
0.233833 -0.00574 0.2339034405240761
0.18857 -0.01614 0.1892594634357817
0.153616 -0.04152 0.15912820572104747
0.128284 -0.07977 0.15106302511203726
0.114027 -0.10533 0.15523068520431132
0.095341 -0.11783 0.1515711555046012
0.069405 -0.11846 0.13729466713969626
0.046898 -0.11238 0.12177309556712435
0.040845 -0.09611 0.1044291440403492
0.049089 -0.07462 0.08931894715568472
0.056685 -0.06001 0.08254931450351359
0.059211 -0.05272 0.07928014203443383
0.057559 -0.07367 0.09348961108593831
0.052306 -0.12159 0.1323633096292171
0.022734 -0.16279 0.16436976259640942
-0.02876 -0.16099 0.1635387345554563
-0.08718 -0.11175 0.14173360540111862
-0.11811 -0.08151 0.14350558246981196
-0.11008 -0.0921 0.14352705807616903
-0.07913 -0.11468 0.13933075503994083
-0.06758 -0.1248 0.1419228536917152
-0.0819 -0.11295 0.13951814398134746
-0.11193 -0.07258 0.13340232869031934
-0.14272 -0.01351 0.14335800814743488
-0.15199 0.013314 0.15257202461788333
-0.1429 -0.04185 0.1489020903144076
-0.14406 -0.14034 0.20111837111512215
-0.17109 -0.19573 0.25996542270078915
-0.19209 -0.17388 0.25910002412195954
-0.18733 -0.09854 0.21166638963236462
-0.14649 -7.3419 7.343361282825461
-0.06482 0.095935 0.11578064011310354
0.048346 0.162398 0.16944157140442245
0.163978 0.191161 0.2518557372882341
0.239656 0.166404 0.2917623854303361
0.255027 0.093528 0.2716362595696679
0.243303 0.007225 0.24341025129192895
0.231595 -0.06541 0.24065475712106751
0.22399 -0.10561 0.24763883419205476
0.200604 -0.09753 0.22305619407673932
0.156798 -0.04995 0.1645618889779769
0.11959 0.019346 0.12114468959058833
0.102027 0.085988 0.13342955022407893
0.115831 0.128532 0.17302397401805336
0.152234 0.144201 0.2096881473927413
0.201675 0.142162 0.24674448295554655
0.250468 0.104086 0.27123442705526896
0.301865 0.030372 0.3033890845251358
0.358377 0.047971 0.36157335489496456
0.390276 0.151103 0.41850623983998136
0.288216 0.110569 0.3086972083077526
0.147676 -0.01971 0.14898551968563925
0.038164 -0.05632 0.06803258995510901
-0.01972 -0.02626 0.03284000609013342
-0.04246 -0.06888 0.0809154249818908
-0.0387 -0.14705 0.15205720140789122
-0.00879 -0.14474 0.14500666088149192
0.027681 -0.01956 0.033894414893902505
0.061493 0.154308 0.16610944558633622
0.097645 0.272261 0.2892414184483266
0.131853 0.268401 0.2990389780781094
0.1387 0.193107 0.23775618488064615
0.117564 0.125712 0.17211856680788393
0.095308 0.087929 0.12967314257393472
0.08747 0.080269 0.11871863063984524
0.09914 0.097439 0.13900754771234547
0.122075 0.133756 0.18108830210977186
0.139518 0.149011 0.20413120889516134
0.150697 0.120292 0.19282051517667925
0.161213 0.036546 0.16530348297903466
0.182965 -0.05992 0.19252687507202726
0.197623 -0.13146 0.23735328463916397
0.196352 -0.13515 0.23836868587127796
0.177269 -0.10119 0.20411691370633647
0.151241 -0.07755 0.16996423912399924
0.129193 -0.00061 0.12919444008547737
0.128887 0.077203 0.15024034737047168
0.126767 0.106952 0.16585717528343474
0.107686 0.097063 0.14497413757287883
0.09723 0.073737 0.12202793970644592
0.090509 0.049362 0.10309454944370242
0.085385 0.036707 0.09294085255688157
0.08291 0.037832 0.09113357407673639
0.08591 0.041353 0.0953446312542033
0.090926 0.030875 0.09602501289247506
0.09597 0.009322 0.09642168108885055
0.099454 -0.01258 0.10024646884554089
0.106289 -0.03408 0.11161898548634099
0.113892 -0.05844 0.12801023890298777
0.117311 -0.08419 0.14439469111085768
0.114125 -0.1048 0.1549437176041675
0.105672 -0.10992 0.15247615546045226
0.097456 -0.10024 0.13980604255896809
0.095134 -0.08733 0.12913948604512873
0.098671 -0.08132 0.1278628509028326
0.1088 -0.098 0.1464289588845048
0.115088 -0.13931 0.18070009364690434
0.103605 -0.18525 0.2122535241756895
0.076939 -0.21663 0.22988729112545564
0.051308 -0.23093 0.2365611459306029
0.026892 -0.20605 0.2077974546619857
0.00037 -0.15483 0.1548304420971535
-0.03272 -0.1148 0.11937184927779246
-0.0587 -0.07796 0.09758817346379632